                         Program Version 5.0.3 -  RELEASE  -
|  1> ! PBE0 ZORA SARC/J TIGHTOPT FREQ NMR
|  2>
|  3> %basis
|  4>     NewGTO H   "def2-SVP" end
|  5>     NewGTO C   "def2-SVP" end
|  6>     NewGTO Cd  "SARC-ZORA-TZVP"  end
|  7> end
|  8>
|  9> # run in parallel
| 10> %PAL NPROCS 16 END
| 11>
| 12>
| 13> %maxcore 20000
| 14>
| 15> * xyz 0 1 #charge & multiplicity (2*s+1)
| 16> Cd         0.00000        0.00000        0.00000
| 17> C          2.25000        0.00000        0.00000
| 18> C         -2.25000        0.00000        0.00000
| 19> H         -2.61380       -0.71870       -0.73430
| 20> H         -2.61380       -0.27470        0.99010
| 21> H         -2.61380        0.99440       -0.25850
| 22> H          2.61380       -0.72180       -0.73130
| 23> H          2.61380        0.99400       -0.26020
| 24> H          2.61380       -0.27110        0.99110
| 25> *
| 26>
| 27> %eprnmr
| 28>     nuclei = all Cd {shift}
| 29> end
| 30>
| 31>                          ****END OF INPUT****
 Total Charge           Charge          ....    0
 Multiplicity           Mult            ....    1
 Number of Electrons    NEL             ....   66
FINAL SINGLE POINT ENERGY     -5743.820815516201
FINAL SINGLE POINT ENERGY     -5743.824720013516
FINAL SINGLE POINT ENERGY     -5743.827776915651
FINAL SINGLE POINT ENERGY     -5743.828000564503
FINAL SINGLE POINT ENERGY     -5743.828098420070
FINAL SINGLE POINT ENERGY     -5743.828136923975
FINAL SINGLE POINT ENERGY     -5743.828139086436
                    ***********************HURRAY********************

CARTESIAN COORDINATES (ANGSTROEM)
---------------------------------
  Cd     0.000000    0.000075   -0.000463
  C      2.111719    0.000296   -0.000045
  C     -2.111719    0.000270   -0.000497
  H     -2.508381   -0.719700   -0.733260
  H     -2.508631   -0.274385    0.989278
  H     -2.508382    0.994777   -0.257895
  H      2.508565   -0.721599   -0.730811
  H      2.508446    0.994123   -0.259957
  H      2.508383   -0.271758    0.990549

 Multiplicity           Mult            ....    1
 Number of Electrons    NEL             ....   66
 Basis Dimension        Dim             ....  135

ORBITAL ENERGIES
----------------

  NO   OCC          E(Eh)            E(eV)
   0   2.0000   -1008.352686    -27438.6715
   1   2.0000    -146.910809     -3997.6464
   2   2.0000    -131.721871     -3584.3343
   3   2.0000    -131.721870     -3584.3343
   4   2.0000    -131.718203     -3584.2345
   5   2.0000     -27.643254      -752.2112
   6   2.0000     -22.656987      -616.5280
   7   2.0000     -22.656987      -616.5280
   8   2.0000     -22.650076      -616.3399
   9   2.0000     -14.874212      -404.7479
  10   2.0000     -14.874198      -404.7475
  11   2.0000     -14.869090      -404.6085
  12   2.0000     -14.869089      -404.6085
  13   2.0000     -14.866812      -404.5465
  14   2.0000     -10.216609      -278.0081
  15   2.0000     -10.216597      -278.0077
  16   2.0000      -4.137112      -112.5765
  17   2.0000      -2.654110       -72.2220
  18   2.0000      -2.654110       -72.2220
  19   2.0000      -2.648750       -72.0761
  20   2.0000      -0.682630       -18.5753
  21   2.0000      -0.666947       -18.1486
  22   2.0000      -0.529661       -14.4128
  23   2.0000      -0.529658       -14.4127
  24   2.0000      -0.528381       -14.3780
  25   2.0000      -0.527687       -14.3591
  26   2.0000      -0.527684       -14.3590
  27   2.0000      -0.388152       -10.5622
  28   2.0000      -0.388107       -10.5609
  29   2.0000      -0.377250       -10.2655
  30   2.0000      -0.377207       -10.2643
  31   2.0000      -0.307502        -8.3676
  32   2.0000      -0.253192        -6.8897
  33   0.0000       0.002004         0.0545
  34   0.0000       0.002017         0.0549
  35   0.0000       0.020871         0.5679
  36   0.0000       0.083152         2.2627
  37   0.0000       0.138824         3.7776

MULLIKEN ATOMIC CHARGES
-----------------------
   0 Cd:    0.572636
   1 C :   -0.443199
   2 C :   -0.443198
   3 H :    0.052255
   4 H :    0.052326
   5 H :    0.052299
   6 H :    0.052256
   7 H :    0.052303
   8 H :    0.052322
Sum of atomic charges:    0.0000000

LOEWDIN ATOMIC CHARGES
----------------------
   0 Cd:    0.268095
   1 C :   -0.249250
   2 C :   -0.249250
   3 H :    0.038395
   4 H :    0.038405
   5 H :    0.038402
   6 H :    0.038395
   7 H :    0.038402
   8 H :    0.038405

  Mayer bond orders larger than 0.100000
B(  0-Cd,  1-C ) :   0.8533 B(  0-Cd,  2-C ) :   0.8533 B(  1-C ,  2-C ) :   0.1060
B(  1-C ,  6-H ) :   0.9661 B(  1-C ,  7-H ) :   0.9661 B(  1-C ,  8-H ) :   0.9661
B(  2-C ,  3-H ) :   0.9661 B(  2-C ,  4-H ) :   0.9661 B(  2-C ,  5-H ) :   0.9661

FINAL SINGLE POINT ENERGY     -5743.828139136798

DIPOLE MOMENT
-------------
                                X             Y             Z
Electronic contribution:     -0.00000      -0.00165      -0.00134
Nuclear contribution   :     -0.00000       0.00136       0.00101
                        -----------------------------------------
Total Dipole Moment    :     -0.00000      -0.00029      -0.00034
                        -----------------------------------------
Magnitude (a.u.)       :      0.00045
Magnitude (Debye)      :      0.00113

CHEMICAL SHIELDING SUMMARY (ppm)
--------------------------------

  Nucleus  Element    Isotropic     Anisotropy
  -------  -------  ------------   ------------
      0       Cd        2971.508       2788.463

VIBRATIONAL FREQUENCIES
-----------------------

Scaling factor for frequencies =  1.000000000  (already applied!)

   0:         0.00 cm**-1
   1:         0.00 cm**-1
   2:         0.00 cm**-1
   3:         0.00 cm**-1
   4:         0.00 cm**-1
   5:         0.00 cm**-1
   6:        12.96 cm**-1
   7:       129.87 cm**-1
   8:       130.01 cm**-1
   9:       479.14 cm**-1
  10:       544.73 cm**-1
  11:       640.36 cm**-1
  12:       640.62 cm**-1
  13:       718.20 cm**-1
  14:       718.36 cm**-1
  15:      1184.63 cm**-1
  16:      1185.78 cm**-1
  17:      1428.67 cm**-1
  18:      1428.97 cm**-1
  19:      1433.16 cm**-1
  20:      1433.48 cm**-1
  21:      3050.63 cm**-1
  22:      3051.88 cm**-1
  23:      3157.67 cm**-1
  24:      3157.81 cm**-1
  25:      3158.26 cm**-1
  26:      3158.40 cm**-1

IR SPECTRUM
-----------

 Mode   freq       eps      Int      T**2         TX        TY        TZ
       cm**-1   L/(mol*cm) km/mol    a.u.
----------------------------------------------------------------------------
  6:     12.96   0.000000    0.00  0.000000  (-0.000005 -0.000005 -0.000000)
  7:    129.87   0.000378    1.91  0.000908  (-0.000003 -0.020677  0.021924)
  8:    130.01   0.000385    1.95  0.000924  (-0.000002  0.022109  0.020873)
  9:    479.14   0.000000    0.00  0.000000  (-0.000000 -0.000005 -0.000004)
 10:    544.73   0.009644   48.74  0.005525  (-0.074329 -0.000000 -0.000008)
 11:    640.36   0.000000    0.00  0.000000  ( 0.000002  0.000004  0.000002)
 12:    640.62   0.000000    0.00  0.000000  (-0.000011 -0.000006  0.000005)
 13:    718.20   0.014132   71.42  0.006140  (-0.000007 -0.053725  0.057044)
 14:    718.36   0.014087   71.19  0.006119  (-0.000007  0.056952  0.053627)
 15:   1184.63   0.000000    0.00  0.000000  (-0.000000  0.000010  0.000017)
 16:   1185.78   0.000000    0.00  0.000000  ( 0.000020  0.000000 -0.000001)
 17:   1428.67   0.000000    0.00  0.000000  (-0.000047 -0.000003  0.000003)
 18:   1428.97   0.000000    0.00  0.000000  (-0.000004 -0.000007 -0.000007)
 19:   1433.16   0.000255    1.29  0.000055  (-0.000001  0.005330  0.005201)
 20:   1433.48   0.000257    1.30  0.000056  ( 0.000001  0.005236 -0.005348)
 21:   3050.63   0.005960   30.12  0.000610  (-0.024691 -0.000001 -0.000003)
 22:   3051.88   0.000000    0.00  0.000000  ( 0.000006 -0.000040 -0.000043)
 23:   3157.67   0.000000    0.00  0.000000  ( 0.000048  0.000116  0.000005)
 24:   3157.81   0.002613   13.21  0.000258  (-0.000002  0.011709  0.011008)
 25:   3158.26   0.000000    0.00  0.000000  ( 0.000001  0.000201 -0.000011)
 26:   3158.40   0.002563   12.95  0.000253  ( 0.000001  0.010896 -0.011599)

--------------------------
THERMOCHEMISTRY AT 298.15K
--------------------------

Temperature         ... 298.15 K
Pressure            ... 1.00 atm
Total Mass          ... 142.48 AMU

Throughout the following assumptions are being made:
  (1) The electronic state is orbitally nondegenerate
  (2) There are no thermally accessible electronically excited states
  (3) Hindered rotations indicated by low frequency modes are not
      treated as such but are treated as vibrations and this may
      cause some error
  (4) All equations used are the standard statistical mechanics
      equations for an ideal gas
  (5) All vibrations are strictly harmonic

freq.      12.96  E(vib)   ...       0.57
freq.     129.87  E(vib)   ...       0.43
freq.     130.01  E(vib)   ...       0.43
freq.     479.14  E(vib)   ...       0.15
freq.     544.73  E(vib)   ...       0.12
freq.     640.36  E(vib)   ...       0.09
freq.     640.62  E(vib)   ...       0.09
freq.     718.20  E(vib)   ...       0.07
freq.     718.36  E(vib)   ...       0.07
freq.    1184.63  E(vib)   ...       0.01
freq.    1185.78  E(vib)   ...       0.01
freq.    1428.67  E(vib)   ...       0.00
freq.    1428.97  E(vib)   ...       0.00
freq.    1433.16  E(vib)   ...       0.00
freq.    1433.48  E(vib)   ...       0.00
freq.    3050.63  E(vib)   ...       0.00
freq.    3051.88  E(vib)   ...       0.00
freq.    3157.67  E(vib)   ...       0.00
freq.    3157.81  E(vib)   ...       0.00
freq.    3158.26  E(vib)   ...       0.00
freq.    3158.40  E(vib)   ...       0.00

------------
INNER ENERGY
------------

The inner energy is: U= E(el) + E(ZPE) + E(vib) + E(rot) + E(trans)
    E(el)   - is the total energy from the electronic structure calculation
              = E(kin-el) + E(nuc-el) + E(el-el) + E(nuc-nuc)
    E(ZPE)  - the the zero temperature vibrational energy from the frequency calculation
    E(vib)  - the the finite temperature correction to E(ZPE) due to population
              of excited vibrational states
    E(rot)  - is the rotational thermal energy
    E(trans)- is the translational thermal energy

Summary of contributions to the inner energy U:
Electronic energy                ...  -5743.82813914 Eh
Zero point energy                ...      0.07026689 Eh      44.09 kcal/mol
Thermal vibrational correction   ...      0.00325676 Eh       2.04 kcal/mol
Thermal rotational correction    ...      0.00141627 Eh       0.89 kcal/mol
Thermal translational correction ...      0.00141627 Eh       0.89 kcal/mol
-----------------------------------------------------------------------
Total thermal energy                  -5743.75178294 Eh

Summary of corrections to the electronic energy:
(perhaps to be used in another calculation)
Total thermal correction                  0.00608931 Eh       3.82 kcal/mol
Non-thermal (ZPE) correction              0.07026689 Eh      44.09 kcal/mol
-----------------------------------------------------------------------
Total correction                          0.07635619 Eh      47.91 kcal/mol

--------
ENTHALPY
--------

The enthalpy is H = U + kB*T
                kB is Boltzmann's constant
Total free energy                 ...  -5743.75178294 Eh
Thermal Enthalpy correction       ...      0.00094421 Eh       0.59 kcal/mol
-----------------------------------------------------------------------
Total Enthalpy                    ...  -5743.75083873 Eh

Note: Rotational entropy computed according to Herzberg
Infrared and Raman Spectra, Chapter V,1, Van Nostrand Reinhold, 1945
Point Group:  C2, Symmetry Number:   2
Rotational constants in cm-1:     2.641425     0.113619     0.113618

Vibrational entropy computed according to the QRRHO of S. Grimme
Chem.Eur.J. 2012 18 9955

-------
ENTROPY
-------

The entropy contributions are T*S = T*(S(el)+S(vib)+S(rot)+S(trans))
     S(el)   - electronic entropy
     S(vib)  - vibrational entropy
     S(rot)  - rotational entropy
     S(trans)- translational entropy
The entropies will be listed as multiplied by the temperature to get
units of energy

Electronic entropy                ...      0.00000000 Eh      0.00 kcal/mol
Vibrational entropy               ...      0.00634748 Eh      3.98 kcal/mol
Rotational entropy                ...      0.01045131 Eh      6.56 kcal/mol
Translational entropy             ...      0.01937265 Eh     12.16 kcal/mol
-----------------------------------------------------------------------
Final entropy term                ...      0.03617143 Eh     22.70 kcal/mol

In case the symmetry of your molecule has not been determined correctly
or in case you have a reason to use a different symmetry number we print
out the resulting rotational entropy values for sn=1,12 :
 --------------------------------------------------------
|  sn= 1 | S(rot)=       0.01110576 Eh      6.97 kcal/mol|
|  sn= 2 | S(rot)=       0.01045131 Eh      6.56 kcal/mol|
|  sn= 3 | S(rot)=       0.01006848 Eh      6.32 kcal/mol|
|  sn= 4 | S(rot)=       0.00979685 Eh      6.15 kcal/mol|
|  sn= 5 | S(rot)=       0.00958616 Eh      6.02 kcal/mol|
|  sn= 6 | S(rot)=       0.00941402 Eh      5.91 kcal/mol|
|  sn= 7 | S(rot)=       0.00926847 Eh      5.82 kcal/mol|
|  sn= 8 | S(rot)=       0.00914240 Eh      5.74 kcal/mol|
|  sn= 9 | S(rot)=       0.00903119 Eh      5.67 kcal/mol|
|  sn=10 | S(rot)=       0.00893171 Eh      5.60 kcal/mol|
|  sn=11 | S(rot)=       0.00884172 Eh      5.55 kcal/mol|
|  sn=12 | S(rot)=       0.00875956 Eh      5.50 kcal/mol|
 --------------------------------------------------------

-------------------
GIBBS FREE ENERGY
-------------------

The Gibbs free energy is G = H - T*S

Total enthalpy                    ...  -5743.75083873 Eh
Total entropy correction          ...     -0.03617143 Eh    -22.70 kcal/mol
-----------------------------------------------------------------------
Final Gibbs free energy         ...  -5743.78701017 Eh

For completeness - the Gibbs free energy minus the electronic energy
G-E(el)                           ...      0.04112897 Eh     25.81 kcal/mol

                             ****ORCA TERMINATED NORMALLY****
TOTAL RUN TIME: 0 days 0 hours 0 minutes 48 seconds 190 msec
