                         Program Version 5.0.3 -  RELEASE  -
|  1> ! PBE0 ZORA SARC/J TIGHTOPT FREQ NMR
|  2>
|  3> %basis
|  4>     NewGTO H   "def2-SVP" end
|  5>     NewGTO C   "def2-SVP" end
|  6>     NewGTO Se  "def2-TZVP"    end
|  7> end
|  8>
|  9>
| 10> # run in parallel
| 11> %PAL NPROCS 16 END
| 12>
| 13>
| 14> %maxcore 20000
| 15>
| 16> * xyz 0 1 #charge & multiplicity (2*s+1)
| 17> Se        -0.30000       -0.51960        0.00000
| 18> C          1.63000       -0.51960        0.00000
| 19> C         -1.26500        1.15180        0.00000
| 20> H          1.99380       -1.54710        0.00000
| 21> H          1.99380       -0.00590       -0.88980
| 22> H          1.99380       -0.00590        0.88980
| 23> H         -2.33670        0.95320       -0.00000
| 24> H         -1.00200        1.72380        0.88980
| 25> H         -1.00200        1.72380       -0.88980
| 26> *
| 27>
| 28> %eprnmr
| 29>     nuclei = all Se {shift}
| 30> end
| 31>
| 32>                          ****END OF INPUT****
 Total Charge           Charge          ....    0
 Multiplicity           Mult            ....    1
 Number of Electrons    NEL             ....   52
FINAL SINGLE POINT ENERGY     -2521.921708831649
FINAL SINGLE POINT ENERGY     -2521.933954208434
FINAL SINGLE POINT ENERGY     -2521.938747444381
FINAL SINGLE POINT ENERGY     -2521.938991764488
FINAL SINGLE POINT ENERGY     -2521.939256497939
FINAL SINGLE POINT ENERGY     -2521.939260418858
FINAL SINGLE POINT ENERGY     -2521.939261087250
FINAL SINGLE POINT ENERGY     -2521.939261309437
                    ***********************HURRAY********************

CARTESIAN COORDINATES (ANGSTROEM)
---------------------------------
  Se    -0.454737   -0.787480   -0.000009
  C      1.441497   -0.404064    0.000000
  C     -1.070948    1.046093   -0.000001
  H      1.962845   -1.370271    0.000004
  H      1.722855    0.157210   -0.901012
  H      1.722845    0.157212    0.901015
  H     -2.168340    1.015281    0.000008
  H     -0.725151    1.570258    0.900925
  H     -0.725167    1.570262   -0.900930

 Multiplicity           Mult            ....    1
 Number of Electrons    NEL             ....   52
 Basis Dimension        Dim             ....  106

ORBITAL ENERGIES
----------------

  NO   OCC          E(Eh)            E(eV)
   0   2.0000    -468.594976    -12751.1176
   1   2.0000     -60.064349     -1634.4340
   2   2.0000     -53.004326     -1442.3210
   3   2.0000     -53.003636     -1442.3023
   4   2.0000     -53.002239     -1442.2642
   5   2.0000     -10.265969      -279.3512
   6   2.0000     -10.265926      -279.3500
   7   2.0000      -8.131458      -221.2682
   8   2.0000      -5.878885      -159.9726
   9   2.0000      -5.875141      -159.8707
  10   2.0000      -5.866436      -159.6338
  11   2.0000      -2.086432       -56.7747
  12   2.0000      -2.086140       -56.7668
  13   2.0000      -2.078423       -56.5568
  14   2.0000      -2.075474       -56.4765
  15   2.0000      -2.073957       -56.4352
  16   2.0000      -0.794831       -21.6284
  17   2.0000      -0.711264       -19.3545
  18   2.0000      -0.614467       -16.7205
  19   2.0000      -0.445161       -12.1135
  20   2.0000      -0.443748       -12.0750
  21   2.0000      -0.428620       -11.6633
  22   2.0000      -0.419019       -11.4021
  23   2.0000      -0.359686        -9.7876
  24   2.0000      -0.317595        -8.6422
  25   2.0000      -0.218635        -5.9494
  26   0.0000       0.027060         0.7363
  27   0.0000       0.061809         1.6819
  28   0.0000       0.070059         1.9064
  29   0.0000       0.118252         3.2178
  30   0.0000       0.119806         3.2601

MULLIKEN ATOMIC CHARGES
-----------------------
   0 Se:   -0.295312
   1 C :   -0.056201
   2 C :   -0.056130
   3 H :    0.069741
   4 H :    0.067095
   5 H :    0.067095
   6 H :    0.069694
   7 H :    0.067009
   8 H :    0.067009
Sum of atomic charges:    0.0000000

LOEWDIN ATOMIC CHARGES
----------------------
   0 Se:   -0.218480
   1 C :   -0.022403
   2 C :   -0.022406
   3 H :    0.052259
   4 H :    0.039698
   5 H :    0.039698
   6 H :    0.052237
   7 H :    0.039698
   8 H :    0.039698

  Mayer bond orders larger than 0.100000
B(  0-Se,  1-C ) :   1.0525 B(  0-Se,  2-C ) :   1.0523 B(  1-C ,  3-H ) :   0.9582
B(  1-C ,  4-H ) :   0.9612 B(  1-C ,  5-H ) :   0.9612 B(  2-C ,  6-H ) :   0.9582
B(  2-C ,  7-H ) :   0.9613 B(  2-C ,  8-H ) :   0.9613

FINAL SINGLE POINT ENERGY     -2521.939261340371

DIPOLE MOMENT
-------------
                                X             Y             Z
Electronic contribution:     -4.79830      -8.30946      -0.00007
Nuclear contribution   :      5.09043       8.81576       0.00008
                        -----------------------------------------
Total Dipole Moment    :      0.29213       0.50630       0.00001
                        -----------------------------------------
Magnitude (a.u.)       :      0.58453
Magnitude (Debye)      :      1.48576

CHEMICAL SHIELDING SUMMARY (ppm)
--------------------------------

  Nucleus  Element    Isotropic     Anisotropy
  -------  -------  ------------   ------------
      0       Se        1836.688        605.734

VIBRATIONAL FREQUENCIES
-----------------------

Scaling factor for frequencies =  1.000000000  (already applied!)

   0:         0.00 cm**-1
   1:         0.00 cm**-1
   2:         0.00 cm**-1
   3:         0.00 cm**-1
   4:         0.00 cm**-1
   5:         0.00 cm**-1
   6:       160.76 cm**-1
   7:       166.77 cm**-1
   8:       217.67 cm**-1
   9:       619.96 cm**-1
  10:       633.66 cm**-1
  11:       849.77 cm**-1
  12:       888.55 cm**-1
  13:       919.65 cm**-1
  14:       972.49 cm**-1
  15:      1283.13 cm**-1
  16:      1305.10 cm**-1
  17:      1426.94 cm**-1
  18:      1435.64 cm**-1
  19:      1441.80 cm**-1
  20:      1449.50 cm**-1
  21:      3065.10 cm**-1
  22:      3068.49 cm**-1
  23:      3180.13 cm**-1
  24:      3186.62 cm**-1
  25:      3192.70 cm**-1
  26:      3193.85 cm**-1

IR SPECTRUM
-----------

 Mode   freq       eps      Int      T**2         TX        TY        TZ
       cm**-1   L/(mol*cm) km/mol    a.u.
----------------------------------------------------------------------------
  6:    160.76   0.000078    0.40  0.000152  (-0.000000  0.000000 -0.012332)
  7:    166.77   0.000000    0.00  0.000000  (-0.000000  0.000000  0.000642)
  8:    217.67   0.000012    0.06  0.000017  ( 0.002087  0.003588  0.000000)
  9:    619.96   0.000021    0.11  0.000011  ( 0.001436  0.002910 -0.000000)
 10:    633.66   0.000340    1.72  0.000167  ( 0.011238 -0.006401 -0.000000)
 11:    849.77   0.000171    0.86  0.000063  (-0.006874  0.003925 -0.000000)
 12:    888.55   0.000000    0.00  0.000000  (-0.000000  0.000000  0.000012)
 13:    919.65   0.003178   16.06  0.001078  ( 0.000000  0.000000 -0.032840)
 14:    972.49   0.003939   19.90  0.001264  (-0.017769 -0.030792 -0.000000)
 15:   1283.13   0.001308    6.61  0.000318  (-0.015462  0.008884 -0.000000)
 16:   1305.10   0.000438    2.22  0.000105  ( 0.005134  0.008858 -0.000000)
 17:   1426.94   0.000000    0.00  0.000000  ( 0.000000 -0.000000 -0.000311)
 18:   1435.64   0.002726   13.78  0.000593  (-0.000001  0.000000  0.024344)
 19:   1441.80   0.003519   17.78  0.000762  (-0.023894  0.013809 -0.000001)
 20:   1449.50   0.000140    0.71  0.000030  ( 0.002666  0.004789  0.000001)
 21:   3065.10   0.003744   18.92  0.000381  ( 0.010067  0.016728  0.000000)
 22:   3068.49   0.003553   17.96  0.000361  (-0.016262  0.009844 -0.000000)
 23:   3180.13   0.001385    7.00  0.000136  (-0.000000 -0.000000  0.011660)
 24:   3186.62   0.000000    0.00  0.000000  ( 0.000000 -0.000000  0.000068)
 25:   3192.70   0.000782    3.95  0.000076  (-0.004039 -0.007754 -0.000000)
 26:   3193.85   0.000082    0.41  0.000008  ( 0.002632  0.001031  0.000000)

--------------------------
THERMOCHEMISTRY AT 298.15K
--------------------------

Temperature         ... 298.15 K
Pressure            ... 1.00 atm
Total Mass          ... 109.03 AMU

Throughout the following assumptions are being made:
  (1) The electronic state is orbitally nondegenerate
  (2) There are no thermally accessible electronically excited states
  (3) Hindered rotations indicated by low frequency modes are not
      treated as such but are treated as vibrations and this may
      cause some error
  (4) All equations used are the standard statistical mechanics
      equations for an ideal gas
  (5) All vibrations are strictly harmonic

freq.     160.76  E(vib)   ...       0.39
freq.     166.77  E(vib)   ...       0.39
freq.     217.67  E(vib)   ...       0.33
freq.     619.96  E(vib)   ...       0.09
freq.     633.66  E(vib)   ...       0.09
freq.     849.77  E(vib)   ...       0.04
freq.     888.55  E(vib)   ...       0.04
freq.     919.65  E(vib)   ...       0.03
freq.     972.49  E(vib)   ...       0.03
freq.    1283.13  E(vib)   ...       0.01
freq.    1305.10  E(vib)   ...       0.01
freq.    1426.94  E(vib)   ...       0.00
freq.    1435.64  E(vib)   ...       0.00
freq.    1441.80  E(vib)   ...       0.00
freq.    1449.50  E(vib)   ...       0.00
freq.    3065.10  E(vib)   ...       0.00
freq.    3068.49  E(vib)   ...       0.00
freq.    3180.13  E(vib)   ...       0.00
freq.    3186.62  E(vib)   ...       0.00
freq.    3192.70  E(vib)   ...       0.00
freq.    3193.85  E(vib)   ...       0.00

------------
INNER ENERGY
------------

The inner energy is: U= E(el) + E(ZPE) + E(vib) + E(rot) + E(trans)
    E(el)   - is the total energy from the electronic structure calculation
              = E(kin-el) + E(nuc-el) + E(el-el) + E(nuc-nuc)
    E(ZPE)  - the the zero temperature vibrational energy from the frequency calculation
    E(vib)  - the the finite temperature correction to E(ZPE) due to population
              of excited vibrational states
    E(rot)  - is the rotational thermal energy
    E(trans)- is the translational thermal energy

Summary of contributions to the inner energy U:
Electronic energy                ...  -2521.93926134 Eh
Zero point energy                ...      0.07440108 Eh      46.69 kcal/mol
Thermal vibrational correction   ...      0.00232585 Eh       1.46 kcal/mol
Thermal rotational correction    ...      0.00141627 Eh       0.89 kcal/mol
Thermal translational correction ...      0.00141627 Eh       0.89 kcal/mol
-----------------------------------------------------------------------
Total thermal energy                  -2521.85970187 Eh

Summary of corrections to the electronic energy:
(perhaps to be used in another calculation)
Total thermal correction                  0.00515839 Eh       3.24 kcal/mol
Non-thermal (ZPE) correction              0.07440108 Eh      46.69 kcal/mol
-----------------------------------------------------------------------
Total correction                          0.07955947 Eh      49.92 kcal/mol

--------
ENTHALPY
--------

The enthalpy is H = U + kB*T
                kB is Boltzmann's constant
Total free energy                 ...  -2521.85970187 Eh
Thermal Enthalpy correction       ...      0.00094421 Eh       0.59 kcal/mol
-----------------------------------------------------------------------
Total Enthalpy                    ...  -2521.85875766 Eh

Note: Rotational entropy computed according to Herzberg
Infrared and Raman Spectra, Chapter V,1, Van Nostrand Reinhold, 1945
Point Group:  Cs, Symmetry Number:   1
Rotational constants in cm-1:     0.385579     0.229873     0.152546

Vibrational entropy computed according to the QRRHO of S. Grimme
Chem.Eur.J. 2012 18 9955

-------
ENTROPY
-------

The entropy contributions are T*S = T*(S(el)+S(vib)+S(rot)+S(trans))
     S(el)   - electronic entropy
     S(vib)  - vibrational entropy
     S(rot)  - rotational entropy
     S(trans)- translational entropy
The entropies will be listed as multiplied by the temperature to get
units of energy

Electronic entropy                ...      0.00000000 Eh      0.00 kcal/mol
Vibrational entropy               ...      0.00401062 Eh      2.52 kcal/mol
Rotational entropy                ...      0.01154246 Eh      7.24 kcal/mol
Translational entropy             ...      0.01899368 Eh     11.92 kcal/mol
-----------------------------------------------------------------------
Final entropy term                ...      0.03454676 Eh     21.68 kcal/mol

In case the symmetry of your molecule has not been determined correctly
or in case you have a reason to use a different symmetry number we print
out the resulting rotational entropy values for sn=1,12 :
 --------------------------------------------------------
|  sn= 1 | S(rot)=       0.01154246 Eh      7.24 kcal/mol|
|  sn= 2 | S(rot)=       0.01088801 Eh      6.83 kcal/mol|
|  sn= 3 | S(rot)=       0.01050517 Eh      6.59 kcal/mol|
|  sn= 4 | S(rot)=       0.01023355 Eh      6.42 kcal/mol|
|  sn= 5 | S(rot)=       0.01002286 Eh      6.29 kcal/mol|
|  sn= 6 | S(rot)=       0.00985072 Eh      6.18 kcal/mol|
|  sn= 7 | S(rot)=       0.00970517 Eh      6.09 kcal/mol|
|  sn= 8 | S(rot)=       0.00957909 Eh      6.01 kcal/mol|
|  sn= 9 | S(rot)=       0.00946789 Eh      5.94 kcal/mol|
|  sn=10 | S(rot)=       0.00936841 Eh      5.88 kcal/mol|
|  sn=11 | S(rot)=       0.00927842 Eh      5.82 kcal/mol|
|  sn=12 | S(rot)=       0.00919626 Eh      5.77 kcal/mol|
 --------------------------------------------------------

-------------------
GIBBS FREE ENERGY
-------------------

The Gibbs free energy is G = H - T*S

Total enthalpy                    ...  -2521.85875766 Eh
Total entropy correction          ...     -0.03454676 Eh    -21.68 kcal/mol
-----------------------------------------------------------------------
Final Gibbs free energy         ...  -2521.89330442 Eh

For completeness - the Gibbs free energy minus the electronic energy
G-E(el)                           ...      0.04595692 Eh     28.84 kcal/mol

                             ****ORCA TERMINATED NORMALLY****
TOTAL RUN TIME: 0 days 0 hours 0 minutes 41 seconds 814 msec
